48
Properties=species:S:1:pos:R:3:tags:I:1:momenta:R:3:forces:R:3 energy=-75.7556233262402 pbc="F F F"
C        4.24424425       2.48284846       1.80632888        0      -0.88158027     -10.67436472       6.89148811      -0.66184520      -0.75629740       0.07401788
C        3.41214849       1.23220653       2.02105130        0      -2.24742158       3.80188848       8.31250918      -0.16899407       0.12654665      -0.16434730
O        2.19544702       1.35162054       1.33219576        0      18.89099285     -19.22591225      -1.98328530       0.16341327      -0.04004761       0.58210888
C        1.41850586       0.21337940       1.39696088        0      11.51640417     -10.48411577      -5.91325908      -0.91927133       2.61964015      -0.50311998
C        0.00145428       0.46089764       1.12437245        0      15.03692766     -30.59977268      22.99813562       0.55929986       0.38913501       0.42050133
O       -0.93704977      -0.36101793       0.69852901        0      27.80654923     -35.68293741      15.56034990      -0.19392366      -0.60499301      -0.04798385
C       -0.49628567      -1.67581511       0.40707058        0      12.18832121     -11.17242349     -14.17108294       0.56382676       0.76818655       0.41575817
S       -0.53966971       2.15978085       1.44416125        0     -20.15028951    -137.58881802     -26.15053906      -1.38715843      -3.97618831      -0.29110720
C       -2.27004565       1.77296471       1.69643798        0       2.25537349     -27.14216375      12.39462878       1.19145191      -0.13075409      -0.25195065
C       -3.16747475       2.01020831       0.68643263        0      10.30643917     -26.01031226      10.01502142       0.47459080       0.15783381      -0.42901406
C       -4.49733282       1.68622598       0.86847983        0       8.79281111      -5.63875265      10.91575559      -0.14929341       0.04332072      -0.21247252
C       -4.91135962       1.12651152       2.06075893        0      14.98564996       5.97298804      14.22562318      -0.28990789      -0.08357158       0.01166928
C       -4.00430780       0.90922845       3.07667509        0       7.14631857       2.20472483      15.60390833      -0.01736872      -0.11648943       0.25251650
C       -2.67429565       1.23348781       2.89139722        0       8.52375627     -16.68942155      14.37794311       0.63900082      -0.08772282       0.19011386
O       -0.04734123       2.55273176       2.81624183        0     -63.22064558    -150.92761561      -4.90983909       0.55183716       0.07607457       1.95708466
O       -0.51175516       3.08945979       0.26020985        0      -5.77368068     -17.93706812      72.25221031      -0.39814680       1.16367009      -1.82636755
O        1.83750617      -0.89482509       1.69023405        0     -25.28513702      15.14947053      60.41313122       0.32570320      -1.78271695       0.19204914
H        5.07032869       2.57679448       2.51173618        0      -0.36271745      -1.34402001       0.07872851      -0.92744534      -0.22303329      -0.67305719
H        4.64662638       2.52495478       0.79503429        0      -0.26100921      -1.08340485       1.11182535      -0.57325235      -0.19775536       1.03361701
H        3.60971598       3.36296546       1.90546761        0       0.93328232      -0.97277796       0.44158779       0.43461711      -1.13051051      -0.12092799
H        3.92328717       0.32315059       1.67634390        0      -0.84383599       0.37280229       2.83536983      -0.90666195       0.96531371       0.26570520
H        3.15080038       1.09441087       3.08118031        0      -1.46217713       1.38038674      -0.41069962       0.05487928       0.16717193      -1.36834759
H       -1.05384379      -2.37016934       1.04101586        0       0.73145877      -0.42488273      -1.90091451       0.57434687       0.84693036      -0.56230316
H       -0.70596969      -1.88763992      -0.64413325        0       0.98376225       1.05410926      -0.66777506       0.22720802       0.36227130       1.09377052
H        0.57898807      -1.77984296       0.56643721        0       0.58160712      -0.34824770      -2.09618717      -0.61045124       0.92953938       0.35493222
H       -2.81569199       2.45179794      -0.23352568        0       0.42298701      -3.00887669       0.88942632       0.03131010      -0.37674208       0.93569859
H       -5.20465695       1.87432212       0.07905068        0       1.66007339      -0.34704446       0.88346487       0.62639222      -0.16301413       0.68691982
H       -5.94477363       0.84556946       2.19256809        0       1.37655583       1.87571167       1.10847345       0.92099791       0.24621023      -0.11893418
H       -4.32432062       0.49048719       4.01556581        0       1.14215301       0.87746167       1.26852211       0.29051392       0.36689396      -0.82211268
H       -1.94472937       1.08106549       3.67102336        0      -0.12456028      -1.65573742       1.05722357      -0.38582286       0.25220600      -0.90599018
O        0.86962983      -7.37650724       7.95122048        0      -8.16598316      21.89262877     -10.36932095       0.01988627       0.21499604       0.03345047
N        1.13191592      -7.19852442       6.72658077        0      -7.37645849      19.62529998     -11.60028561       0.38334030       0.12499713      -2.04055737
C        1.39908117      -5.96697212       6.17914189        0      -6.60585152      13.77090725     -10.29157418      -0.00360207       0.29979672       0.17563358
C        1.56844979      -6.27536000       4.83973105        0      -6.42576371      15.16787619      -9.24254770       0.02632437       1.00074192      -0.04546352
N        1.45443672      -7.60545869       4.68064929        0      -8.37760215      17.65694171      -8.11421963      -0.08649669       0.10681796       0.36262879
O        1.17346726      -8.19553116       5.82455861        0      -9.31443052      26.29184490      -8.05667117       0.03417407       1.08225819       0.49115434
C        1.78558112      -5.24041029       3.86026424        0      -2.86644179      11.06539289      -8.22564835      -0.04981957      -1.09462750      -0.53383137
N        1.90859184      -5.57325895       2.44945940        0       4.73203936      11.60512509      -1.37183541      -0.20905606       0.56428792       2.38119618
O        0.94165488      -6.08475676       1.87106923        0      14.77697205      -3.24539485      -5.11394909      -0.40472732      -0.21107648       0.05820333
O        2.97521067      -5.32402567       1.87162647        0       1.93415544      18.34344430     -10.22345472       0.36789930       0.23929015       0.01623531
C        1.83670604      -3.93192325       4.27387537        0      -1.78494099       8.56622484      -4.79548409       0.05898003       0.52618926       0.06515070
C        1.69066621      -3.63332063       5.64498897        0      -3.16904456      12.02038961      -8.44981561       0.03455506       0.07704730      -0.00269348
N        1.79220328      -2.50500090       6.43896791        0      -4.26266134      12.50664797     -13.01482788      -0.40569042      -2.07314861       0.94177275
O        2.03505183      -1.37107223       5.95717877        0      -4.21536398      19.42614833     -12.51533580       0.04436245       0.01331638      -0.30325407
O        1.64501696      -2.74470660       7.75727312        0      -6.01234133      15.74399046     -21.01613193       0.09752013      -0.15713626      -1.18686375
N        1.42873474      -4.04458193       7.83032297        0      -5.84837627      15.94514031     -14.29622942       0.07597493       0.39992355      -0.24546240
C        1.48083499      -4.60595543       6.61113261        0      -5.32962599      11.31305116     -11.37542185       0.10267033      -0.25487629      -0.85050277
H        1.98828784      -3.12348352       3.57439698        0       0.63464042       0.39233331      -0.30009464      -0.12614104      -0.66990524       0.51477630
48
Properties=species:S:1:pos:R:3:tags:I:1:momenta:R:3:forces:R:3 energy=-75.91843242528165 pbc="F F F"
C        4.24350657       2.47395834       1.81206438        0      -0.89050826     -10.68151201       6.88630601      -0.65347199      -0.75446929       0.07474541
C        3.41024603       1.23534890       2.02797065        0      -2.32289657       3.74654884       8.30915336      -0.14693069       0.13422310      -0.15054177
O        2.20720346       1.33958196       1.33103526        0      18.72672231     -19.29536099      -1.72929905       0.12266147      -0.03668650       0.58069167
C        1.42802386       0.20465849       1.39212596        0      11.34719093     -10.46517488      -5.70052088      -0.90020584       2.90577448      -0.68404691
C        0.01394612       0.43542761       1.14348198        0      14.97076518     -30.58429908      22.90647968       0.52938639       0.30202849       0.42438164
O       -0.91965367      -0.38331049       0.70821780        0      27.85766476     -35.64867765      15.44146244      -0.21792599      -0.55168404      -0.06288017
C       -0.48614123      -1.68506170       0.39531703        0      12.18062861     -11.03931290     -14.06294533       0.57346855       0.74126452       0.43964771
S       -0.54594674       2.11685800       1.43611944        0     -20.09791262    -137.63267803     -25.41116407      -1.46646303      -4.31707790      -0.41361292
C       -2.26816394       1.75035143       1.70676092        0       2.26489937     -27.17958555      12.40316671       1.15951216      -0.11863966      -0.22840187
C       -3.15890527       1.98855447       0.69477997        0      10.27906925     -26.00653623      10.03703500       0.49038138       0.15152484      -0.42816931
C       -4.48997935       1.68152222       0.87756929        0       8.87193900      -5.66070120      10.91895914      -0.15356433       0.05307977      -0.22297081
C       -4.89886866       1.13148280       2.07259171        0      15.02024580       5.96901119      14.19898973      -0.26771288      -0.07962047       0.00960381
C       -3.99833116       0.91105541       3.08965483        0       7.21097738       2.18393661      15.57594140      -0.00848523      -0.11028805       0.25825049
C       -2.66721532       1.21958790       2.90336552        0       8.48448538     -16.70097013      14.37229750       0.65801666      -0.09163795       0.20389592
O       -0.08672409       2.45862411       2.81310773        0     -62.79524368    -150.19562518      -5.11929718       0.57078075       0.04603546       2.36705321
O       -0.51538375       3.07796830       0.30532591        0      -5.83727811     -18.83630474      72.10966931      -0.38918160       1.58182031      -2.15533914
O        1.82170524      -0.88533823       1.72781085        0     -25.27465544      15.20675739      59.82322615       0.39303818      -2.04402609       0.36787526
H        5.06673583       2.56344727       2.51254016        0      -0.36160039      -1.34678649       0.08336908      -0.91495087      -0.22078878      -0.65670785
H        4.64403423       2.51419531       0.80603067        0      -0.26156935      -1.08571088       1.10502331      -0.56888987      -0.19705388       1.01346626
H        3.61896039       3.35332719       1.90985435        0       0.93038088      -0.97029033       0.44278356       0.41207555      -1.11333795      -0.11702311
H        3.91487766       0.32689071       1.70442862        0      -0.85154489       0.38123332       2.82648283      -0.89347276       0.93582316       0.23082326
H        3.13630951       1.10805805       3.07706875        0      -1.45917214       1.37085502      -0.41821454       0.05501888       0.14492087      -1.34126438
H       -1.04659778      -2.37434422       1.02219573        0       0.72933017      -0.41674799      -1.89319929       0.56040236       0.84502556      -0.53682282
H       -0.69620472      -1.87716888      -0.65066572        0       0.98485996       1.05686123      -0.64911314       0.22188024       0.34663605       1.05758990
H        0.58475422      -1.78327463       0.54567776        0       0.58084690      -0.34356253      -2.08889410      -0.61230616       0.92775533       0.37063218
H       -2.81149234       2.42194639      -0.22469882        0       0.42366411      -3.00919649       0.89007072       0.03526860      -0.35883393       0.91735212
H       -5.18818829       1.87088139       0.08781335        0       1.66000745      -0.34660504       0.88308898       0.60748256      -0.15736178       0.66048250
H       -5.93108088       0.86416723       2.20355683        0       1.38392504       1.87359234       1.10685166       0.90008207       0.23212649      -0.12114760
H       -4.31298594       0.49919167       4.02814346        0       1.14292085       0.87736212       1.26712866       0.29164283       0.35180595      -0.79942855
H       -1.94595323       1.06462807       3.68152244        0      -0.12216241      -1.65805476       1.05939797      -0.34626515       0.25653345      -0.88489252
O        0.86452606      -7.36282251       7.94473802        0      -8.16505694      21.89579072     -10.37327781       0.02584332       0.21821176       0.00629000
N        1.12664680      -7.18452183       6.71830793        0      -7.38447370      19.60148185     -11.57516680       0.37198926       0.12532076      -1.98254459
C        1.39358082      -5.95550441       6.17057706        0      -6.60708422      13.77684722     -10.28283130       0.00016691       0.30045340       0.16728153
C        1.56310040      -6.26274343       4.83203703        0      -6.42452415      15.13956756      -9.24002407       0.02691476       0.98570627      -0.04408113
N        1.44845488      -7.59286556       4.67485327        0      -8.37993836      17.62133651      -8.12277599      -0.08319388       0.11571578       0.35370020
O        1.16764205      -8.17912506       5.81951791        0      -9.32512383      26.20411053      -8.07262596       0.03420477       1.05839146       0.47677125
C        1.78319419      -5.23119859       3.85341086        0      -2.86743409      11.06292999      -8.23757814      -0.04839028      -1.08040350      -0.52084253
N        1.91196710      -5.56498390       2.44845780        0       4.72338566      11.57650303      -1.43423503      -0.20423244       0.56355290       2.33949909
O        0.95090229      -6.08677670       1.86788381        0      14.81298847      -3.21792757      -5.07864780      -0.38811865      -0.21007896       0.06755770
O        2.97640975      -5.31256200       1.86523786        0       1.90255328      18.33799525     -10.21880481       0.34383505       0.23356621       0.01997125
C        1.83521771      -3.92476966       4.26985230        0      -1.79034173       8.61830572      -4.86896753       0.06052765       0.51506994       0.06124375
C        1.68802751      -3.62330516       5.63794605        0      -3.16965181      12.03882638      -8.46873120       0.03211639       0.07387848       0.00640486
N        1.78916018      -2.49605785       6.42968116        0      -4.26228025      12.54652396     -13.00102508      -0.39363272      -2.01517598       0.90584009
O        2.03241603      -1.35893450       5.94935426        0      -4.21868328      19.41212670     -12.52155821       0.03706325      -0.01784592      -0.28642957
O        1.64125746      -2.73485520       7.74416420        0      -6.01733569      15.77861600     -20.92951993       0.09674052      -0.15291958      -1.16057180
N        1.42455781      -4.03319517       7.82012682        0      -5.85287832      15.95375385     -14.26717681       0.07557090       0.38751307      -0.25281709
C        1.47639936      -4.59652271       6.60166773        0      -5.32563426      11.34633768     -11.36107694       0.10195020      -0.24564727      -0.83708130
H        1.99458803      -3.11958139       3.57140916        0       0.63547996       0.39434185      -0.30225559      -0.13062721      -0.66018041       0.50656669
48
Properties=species:S:1:pos:R:3:tags:I:1:momenta:R:3:forces:R:3 energy=-76.07803138247672 pbc="F F F"
C        4.24276138       2.46506220       1.81779552        0      -0.89960866     -10.68881237       6.88102299      -0.64397115      -0.75130191       0.07518233
C        3.40828015       1.23844477       2.03488719        0      -2.39979423       3.69017729       8.30574081      -0.12414423       0.14354937      -0.13673799
O        2.21885621       1.32749954       1.33003500        0      18.55921340     -19.36619375      -1.47049894       0.08182584      -0.03320389       0.57711208
C        1.43739962       0.19595355       1.38746984        0      11.17470490     -10.44576140      -5.48373213      -0.85749296       3.15749410      -0.88454157
C        0.02638235       0.40997057       1.16251446        0      14.90334015     -30.56855799      22.81303836       0.50178699       0.21016707       0.43825123
O       -0.90222531      -0.40558141       0.71783158        0      27.90976300     -35.61370667      15.32032740      -0.24255036      -0.49504520      -0.07537665
C       -0.47600325      -1.69419642       0.38365438        0      12.17281424     -10.90369813     -13.95274552       0.58322610       0.71081794       0.46203823
S       -0.55220733       2.07392129       1.42831050        0     -20.04492331    -137.67775271     -24.65732349      -1.52725855      -4.64753785      -0.57077268
C       -2.26627422       1.72770669       1.71709105        0       2.27461289     -27.21772693      12.41189754       1.12821765      -0.10650489      -0.20138814
C       -3.15035880       1.96690380       0.70314581        0      10.25118400     -26.00267427      10.05945292       0.50565638       0.14412020      -0.42625764
C       -4.48255938       1.67680000       0.88666145        0       8.95255524      -5.68306815      10.92222707      -0.15679070       0.06297764      -0.23276845
C       -4.88634862       1.13645074       2.08440210        0      15.05550007       5.96495360      14.17184591      -0.24419631      -0.07591891       0.00736212
C       -3.99230017       0.91286490       3.10261107        0       7.27685054       2.16274563      15.54744233       0.00115302      -0.10367395       0.26333501
C       -2.66016799       1.20567830       2.91532907        0       8.44448657     -16.71272291      14.36651785       0.67934493      -0.09518321       0.21654589
O       -0.12583843       2.36497854       2.80984148        0     -62.36138496    -149.44901142      -5.33271440       0.55952868      -0.01839350       2.76967429
O       -0.51905247       3.06590928       0.35035196        0      -5.90211101     -19.75307999      71.96422931      -0.37887986       2.02624831      -2.44930651
O        1.80591091      -0.87581525       1.76501540        0     -25.26399989      15.26503755      59.22199932       0.43496352      -2.26989953       0.56060038
H        5.06315415       2.55007235       2.51339062        0      -0.36046233      -1.34960537       0.08809749      -0.90176095      -0.21859261      -0.63981965
H        4.64143648       2.50341275       0.81695893        0      -0.26214027      -1.08806057       1.09809244      -0.56419773      -0.19632511       0.99250442
H        3.62817574       3.34371383       1.91425307        0       0.92742441      -0.96775480       0.44400199       0.38890616      -1.09496800      -0.11295165
H        3.90639096       0.33071527       1.73242435        0      -0.85939952       0.38982372       2.81742735      -0.87917273       0.90340534       0.19628803
H        3.12184874       1.12160978       3.07288193        0      -1.45611013       1.36114268      -0.42587193       0.05402194       0.12236586      -1.31218506
H       -1.03937309      -2.37843764       1.00345287        0       0.72716098      -0.40845900      -1.88533751       0.54571778       0.84287176      -0.51043149
H       -0.68642875      -1.86667028      -0.65701131        0       0.98597813       1.05966632      -0.63009771       0.21627236       0.33212397       1.01973587
H        0.59051276      -1.78665938       0.52499136        0       0.58007065      -0.33878872      -2.08146209      -0.61244711       0.92557933       0.38461236
H       -2.80728591       2.39209164      -0.21586551        0       0.42435391      -3.00952244       0.89072748       0.03908559      -0.34103864       0.89811603
H       -5.17172030       1.86744506       0.09657226        0       1.65994029      -0.34615717       0.88270597       0.58867655      -0.15159460       0.63320921
H       -5.91731434       0.88274378       2.21452933        0       1.39143353       1.87143296       1.10519911       0.87878840       0.21845718      -0.12345337
H       -4.30164357       0.50789516       4.04070716        0       1.14370326       0.87726088       1.26570845       0.29305259       0.33661097      -0.77620693
H       -1.94715308       1.04816743       3.69204330        0      -0.11971933      -1.66041632       1.06161367      -0.30453753       0.26085011      -0.86419661
O        0.85942287      -7.34913578       7.93825306        0      -8.16411261      21.89901043     -10.37731096       0.03165633       0.22136156      -0.02030057
N        1.12137191      -7.17053641       6.71005320        0      -7.39264007      19.57720716     -11.54956894       0.36078161       0.12603871      -1.92476206
C        1.38807944      -5.94403170       6.16201958        0      -6.60833905      13.78290630     -10.27392452       0.00390996       0.30105551       0.15884552
C        1.55775206      -6.25015064       4.82434512        0      -6.42325339      15.11074825      -9.23746638       0.02743031       0.97055788      -0.04255877
N        1.44247135      -7.58029810       4.66905109        0      -8.38232132      17.58503418      -8.13149047      -0.07988130       0.12453878       0.34482072
O        1.16181009      -8.16277432       5.81446713        0      -9.33601821      26.11471465      -8.08888627       0.03426361       1.03425543       0.46200560
C        1.78080643      -5.22198899       3.84654745        0      -2.86844791      11.06036930      -8.24974956      -0.04715452      -1.06541955      -0.50713872
N        1.91533612      -5.55672948       2.44741124        0       4.71456340      11.54734450      -1.49778488      -0.19971263       0.56202130       2.29646754
O        0.96017241      -6.08877931       1.86472066        0      14.84967572      -3.18994415      -5.04268334      -0.37121393      -0.20843744       0.07736055
O        2.97758889      -5.30110176       1.85885218        0       1.87036049      18.33244398     -10.21406960       0.32005269       0.22777455       0.02393739
C        1.83372484      -3.91757228       4.26576747        0      -1.79583930       8.67141390      -4.94385834       0.06183551       0.50351469       0.05748551
C        1.68538829      -3.61327420       5.63088725        0      -3.17027456      12.05761472      -8.48797396       0.02969791       0.07068223       0.01529904
N        1.78611735      -2.48708608       6.42040436        0      -4.26189383      12.58713743     -12.98696464      -0.38164740      -1.95774576       0.87000180
O        2.02977813      -1.34680561       5.94152582        0      -4.22206491      19.39783982     -12.52789956       0.02990025      -0.04832193      -0.27022463
O        1.63749480      -2.72498196       7.73110993        0      -6.02242555      15.81389192     -20.84126607       0.09586209      -0.14886787      -1.13392106
N        1.42037764      -4.02180220       7.80995161        0      -5.85746503      15.96253848     -14.23756186       0.07516973       0.37516040      -0.26008911
C        1.47196708      -4.58706201       6.59221489        0      -5.32156205      11.38026455     -11.34648014       0.10127570      -0.23624558      -0.82373332
H        2.00089662      -3.11565915       3.56839971        0       0.63633503       0.39638790      -0.30445696      -0.13505026      -0.65038028       0.49833151
48
Properties=species:S:1:pos:R:3:tags:I:1:momenta:R:3:forces:R:3 energy=-76.24135819084435 pbc="F F F"
C        4.24200855       2.45615992       1.82352222        0      -0.90888278     -10.69626701       6.87563829      -0.63332167      -0.74677167       0.07531037
C        3.40624964       1.24149328       2.04180086        0      -2.47812497       3.63276634       8.30227115      -0.10073071       0.15445035      -0.12304370
O        2.23040324       1.31537242       1.32919803        0      18.38844168     -19.43842104      -1.20684962       0.04106007      -0.02955774       0.57137788
C        1.44663040       0.18726497       1.38299591        0      10.99892175     -10.42587133      -5.26286315      -0.79054128       3.36662437      -1.09771124
C        0.03876192       0.38452674       1.18146839        0      14.83464312     -30.55254757      22.71779829       0.47677849       0.11415643       0.46259919
O       -0.88476408      -0.42783025       0.72736893        0      27.96285125     -35.57801895      15.19692827      -0.26777744      -0.43525456      -0.08534216
C       -0.46587182      -1.70321718       0.37208433        0      12.16487732     -10.76556090     -13.84046827       0.59304880       0.67698217       0.48274526
S       -0.55845130       2.03097032       1.42073897        0     -19.99131824    -137.72405298     -23.88890952      -1.56661708      -4.95642132      -0.76077535
C       -2.26437634       1.70502989       1.72742852        0       2.28451544     -27.25659322      12.42082282       1.09774089      -0.09459532      -0.17103233
C       -3.14183576       1.94525639       0.71153049        0      10.22277964     -25.99872571      10.08227812       0.52036480       0.13566767      -0.42326988
C       -4.47507168       1.67205899       0.89575635        0       9.03467069      -5.70585658      10.92555986      -0.15896143       0.07295026      -0.24186214
C       -4.87379896       1.14141526       2.09618968        0      15.09141760       5.96081465      14.14418794      -0.21941147      -0.07249800       0.00494215
C       -3.98621384       0.91465657       3.11554336        0       7.34394691       2.14114890      15.51840721       0.01156685      -0.09671391       0.26775461
C       -2.65315427       1.19175882       2.92728775        0       8.40375455     -16.72468135      14.36060307       0.70319701      -0.09850287       0.22794859
O       -0.16467892       2.27180424       2.80644059        0     -61.91900614    -148.68766453      -5.55011931       0.51555587      -0.11716982       3.15214010
O       -0.52276211       3.05327173       0.39528621        0      -5.96818846     -20.68752513      71.81586797      -0.36769889       2.48580486      -2.69721804
O        1.79012330      -0.86625553       1.80184060        0     -25.25316892      15.32431800      58.60936684       0.45007167      -2.45239776       0.76293493
H        5.05958387       2.53666921       2.51428842        0      -0.35930311      -1.35247704       0.09291440      -0.88787616      -0.21645634      -0.62239960
H        4.63883300       2.49260667       0.82781779        0      -0.26272206      -1.09045425       1.09103179      -0.55917604      -0.19557376       0.97073686
H        3.63736148       3.33412586       1.91866399        0       0.92441251      -0.96517102       0.44524324       0.36516344      -1.07540989      -0.10872600
H        3.89782560       0.33462584       1.76032940        0      -0.86740096       0.39857464       2.80820213      -0.86382235       0.86814635       0.16230172
H        3.10741863       1.13506425       3.06861844        0      -1.45299067       1.35124838      -0.43367283       0.05185239       0.09958804      -1.28118318
H       -1.03217012      -2.38244805       0.98478873        0       0.72495090      -0.40001466      -1.87732810       0.53029332       0.84044898      -0.48313831
H       -0.67664159      -1.85614358      -0.66316649        0       0.98711690       1.06252494      -0.61072618       0.21041410       0.31885605       0.98036185
H        0.59626351      -1.78999633       0.50437938        0       0.57927822      -0.33392562      -2.07389013      -0.61070600       0.92312375       0.39703897
H       -2.80307258       2.36223363      -0.20702562        0       0.42505651      -3.00985461       0.89139670       0.04276843      -0.32338316       0.87799892
H       -5.15525298       1.86401322       0.10532734        0       1.65987190      -0.34570080       0.88231580       0.57001631      -0.14572113       0.60513317
H       -5.90347261       0.90129870       2.22548528        0       1.39908231       1.86923325       1.10351557       0.85716868       0.20522188      -0.12585257
H       -4.29029337       0.51659764       4.05325664        0       1.14450035       0.87715791       1.26426127       0.29475156       0.32132431      -0.75246844
H       -1.94832846       1.03168315       3.70258634        0      -0.11723073      -1.66282240       1.06387097      -0.26066521       0.26495320      -0.84407869
O        0.85432029      -7.33544702       7.93176555        0      -8.16315004      21.90228832     -10.38142096       0.03732689       0.22444504      -0.04632512
N        1.11609113      -7.15656848       6.70181691        0      -7.40095870      19.55247254     -11.52348850       0.34972002       0.12714703      -1.86722823
C        1.38257701      -5.93255390       6.15346958        0      -6.60961618      13.78908540     -10.26485264       0.00762457       0.30160314       0.15033271
C        1.55240480      -6.23758206       4.81665536        0      -6.42195118      15.08141463      -9.23487444       0.02787180       0.95530333      -0.04090082
N        1.43648611      -7.56775681       4.66324262        0      -8.38475140      17.54802950      -8.14036421      -0.07655909       0.13328583       0.33599377