17
Properties=species:S:1:pos:R:3:tags:I:1:momenta:R:3 energy=23.390525057840886 pbc="F F F"
C        2.64941580      -0.36114499       0.34960742        0       4.00716411      -0.80626550      -7.21244808
O        1.52411657       0.21541238      -0.26046597        0       8.12080656       0.27611886     -14.33900205
C        0.32965941      -0.45051985       0.05876395        0      -0.10809260      22.84255704      15.65973556
C       -0.84287849       0.27203727      -0.59800097        0      -5.02592768       6.64753276     -14.36516669
C       -2.13689638      -0.51424814      -0.47295454        0       3.43439039     -10.27399806     -35.68000945
C       -0.96273332       1.67160214      -0.03578706        0     -20.73626197       0.77340503      -8.11856246
O       -1.98008575       2.14373701       0.39494676        0      -6.65858549     -67.64047385     112.72837500
H        2.57380720      -0.32523921       1.44403084        0       1.36330560       2.96927078      -0.61977877
H        3.52131944       0.21014692       0.03501564        0       0.86373712      -2.30482756      -3.19212059
H        2.77859331      -1.40741571       0.04343479        0      -1.64790025      -1.17082669       2.28435450
H        0.18927867      -0.48561890       1.15082759        0       0.95550853       6.18110713       1.58136360
H        0.36357378      -1.49047171      -0.29738219        0      -0.57421331       0.91608070       4.18505539
H       -0.57458338       0.39991148      -1.65493954        0       0.95268696       1.08262567      -0.77829967
H       -2.96605604       0.02919357      -0.92355286        0       0.02343481      -1.01086242      -2.70464523
H       -2.04984041      -1.48428476      -0.96512732        0       1.79649813      -0.25423072      -3.98598092
H       -2.39274398      -0.68102333       0.57524064        0      -0.24263390      -2.83195805      -3.44312457
H       -0.02394641       2.25792586      -0.04115177        0      -2.46481297       1.18148175      -1.01695161
17
Properties=species:S:1:pos:R:3:tags:I:1:momenta:R:3 energy=23.27801392144118 pbc="F F F"
C        2.66584547      -0.37481595       0.32297175        0       3.53058911      -5.25910870      -4.92493308
O        1.55072579       0.19549544      -0.31235613        0       8.04830354     -12.08809049     -16.98221625
C        0.33139176      -0.35370966       0.11759385        0       0.96309885      21.27368641      11.24145763
C       -0.86688955       0.30730988      -0.65282386        0      -5.96990633       9.38960788     -10.75281094
C       -2.12019931      -0.54838659      -0.62218841        0       4.08287186      -5.37692710     -32.39390713
C       -1.06084362       1.66596599      -0.03858037        0     -23.70287521      -3.32512935       6.36498668
O       -1.96252227       1.90223485       0.73279219        0      16.57512426     -78.62109267      92.79245275
H        2.64369068      -0.18186100       1.40327809        0       1.30798490       2.52948407      -0.92812188
H        3.55734900       0.07384936      -0.11230918        0       0.52928349      -2.88749866      -2.45312245
H        2.70219229      -1.46202572       0.17589094        0      -1.28689827      -0.91606274       2.77262345
H        0.26219898      -0.18062086       1.20387282        0       1.80679936       5.50433768       0.46983657
H        0.32509099      -1.43236167      -0.09844128        0      -0.87820850       1.29014202       3.43031522
H       -0.53987479       0.48349375      -1.68494037        0       0.37915580       2.08502337      -0.37654577
H       -2.96647075      -0.01380252      -1.05139260        0      -0.04419711      -0.64373500      -2.19488743
H       -1.95970342      -1.47807879      -1.17096908        0       1.64367345       0.47444184      -3.88866187
H       -2.39476192      -0.81751992       0.39947357        0       0.15246674      -2.39825568      -3.28533557
H       -0.16455992       2.31365414      -0.06175315        0      -2.89360095       0.95044295       0.19444108
17
Properties=species:S:1:pos:R:3:tags:I:1:momenta:R:3 energy=23.193505776464526 pbc="F F F"
C        2.68109234      -0.40530584       0.30658270        0       3.54451182      -8.38819832      -2.54430291
O        1.57683037       0.13813457      -0.36976581        0       7.77711472     -22.38511159     -17.42398061
C        0.33910617      -0.26528827       0.15801979        0       2.71776835      18.87043098       7.31176269
C       -0.89574568       0.35390572      -0.69318681        0      -7.28832232      11.83583298      -7.77939722
C       -2.10241265      -0.56168590      -0.75661589        0       3.83443298      -0.69198055     -28.95007883
C       -1.16636119       1.64174809       0.01555661        0     -23.86325244      -7.92153250      17.80140138
O       -1.87730475       1.63147474       1.00615098        0      34.09777624     -85.06123096      73.47836715
H        2.71008163      -0.06004185       1.34811045        0       1.23489645       2.15077251      -1.18003406
H        3.57860572      -0.08756719      -0.22120748        0       0.31026193      -3.24981640      -1.71521940
H        2.64382419      -1.50177071       0.33061551        0      -0.94676467      -0.58602775       3.12620191
H        0.37309120       0.08897353       1.20177442        0       2.37803991       4.81365688      -0.53423863
H        0.27502519      -1.35895367       0.05959508        0      -1.00056528       1.47996744       2.60303331
H       -0.53481683       0.61337542      -1.69459446        0      -0.18385577       2.84276671       0.00729133
H       -2.97139070      -0.03839566      -1.15323333        0      -0.15349945      -0.29637411      -1.71125263
H       -1.88001661      -1.43620157      -1.37018260        0       1.38505650       1.12138692      -3.73177205
H       -2.37854628      -0.93144386       0.23241536        0       0.44725145      -1.96271864      -3.11282371
H       -0.32269875       2.35597438      -0.02353180        0      -3.12503367       0.64908394       1.25324314
17
Properties=species:S:1:pos:R:3:tags:I:1:momenta:R:3 energy=23.11945039855082 pbc="F F F"
C        2.69788678      -0.44561327       0.30084197        0       4.20584894      -9.66439178      -0.02895706
O        1.60187736       0.05130979      -0.42360773        0       7.53156309     -29.85267457     -14.87408038
C        0.35655940      -0.19060885       0.18224674        0       5.34300031      14.94652267       3.72902094
C       -0.93160167       0.41050914      -0.72179196        0      -9.16252115      13.90065164      -5.33581025
C       -2.08874077      -0.55427913      -0.87585581        0       2.13252601       4.08580751     -25.45452694
C       -1.26437445       1.59445935       0.11224787        0     -20.27382129     -13.85069398      25.68646170
O       -1.74597424       1.34885205       1.21663293        0      44.65726962     -85.90283011      54.54564484
H        2.77272486       0.04461045       1.28035023        0       1.16349314       1.87849597      -1.40984477
H        3.59268315      -0.26006589      -0.29062080        0       0.25704632      -3.30182887      -0.93149798
H        2.60387114      -1.52067297       0.49933212        0      -0.57974210      -0.11340657       3.30944342
H        0.50302591       0.32052182       1.14960787        0       2.52549321       4.03707644      -1.44886982
H        0.22491378      -1.28274558       0.17059629        0      -0.88277255       1.39179887       1.61786018
H       -0.55874860       0.77508732      -1.68380200        0      -0.72713894       3.29960868       0.41041150
H       -2.98368714      -0.04412891      -1.23044872        0      -0.33072046       0.08356865      -1.24637687
H       -1.81806084      -1.36128810      -1.55940239        0       0.95685395       1.74638616      -3.50080166
H       -2.35083824      -1.02200919       0.07446294        0       0.58324001      -1.50159922      -2.93587265
H       -0.48619131       2.37850798       0.06786177        0      -3.08569950       0.18448718       2.23122336
17
Properties=species:S:1:pos:R:3:tags:I:1:momenta:R:3 energy=23.051335000914612 pbc="F F F"
C        2.71840652      -0.48672766       0.30724607        0       5.18783612      -8.70430786       3.11860159
O        1.62775021      -0.05413275      -0.46587550        0       8.53249573     -33.55861879     -10.72301309
C        0.38570350      -0.13623691       0.18947512        0       7.80751462       9.71629186      -0.68097710
C       -0.97653967       0.47440387      -0.74015764        0     -11.37349021      15.06493149      -3.03993581
C       -2.08617282      -0.52611529      -0.97914690        0      -1.23527942       8.69134632     -21.57449973
C       -1.34006860       1.52028314       0.23465052        0     -13.98658236     -19.80403427      29.47123624
O       -1.58888479       1.07068925       1.36557771        0      50.32440566     -82.73095405      36.12539309
H        2.83091393       0.13835558       1.20258307        0       1.05332853       1.73311049      -1.53986096
H        3.60812772      -0.42661722      -0.31701581        0       0.35739349      -3.02505600      -0.06578351
H        2.58277163      -1.51150563       0.67391161        0      -0.24457849       0.47911360       3.36036192
H        0.62985387       0.50875795       1.05246344        0       2.27468386       3.16029446      -2.24756086
H        0.18508754      -1.21789134       0.22526387        0      -0.63750151       1.05991460       0.44633085
H       -0.60985107       0.95249458      -1.65165403        0      -1.21941186       3.44356077       0.81676218
H       -3.00749507      -0.02946320      -1.28293900        0      -0.59779826       0.47303566      -0.75619964
H       -1.78317213      -1.25470595      -1.73373816        0       0.35380636       2.31791777      -3.15431649
H       -2.32102102      -1.08803385      -0.07376061        0       0.52696001      -1.02908672      -2.73519660
H       -0.63879275       2.37272181       0.20596306        0      -2.69436089      -0.42262205       3.00419298
17
Properties=species:S:1:pos:R:3:tags:I:1:momenta:R:3 energy=22.989640016519274 pbc="F F F"
C        2.74345319      -0.51852989       0.32983273        0       6.22861733      -5.48148553       7.35108010
O        1.66062418      -0.16503862      -0.49410637        0      11.83203239     -33.29488960      -6.46701022
C        0.42307729      -0.10613148       0.17385472        0       9.03186185       4.02561794      -6.66594157
C       -1.03129623       0.54073101      -0.74825107        0     -13.60100615      15.02641224      -0.63364285
C       -2.10169964      -0.47918583      -1.06367653        0      -6.03125706      12.56782883     -16.86838369
C       -1.38556320       1.42385415       0.36458498        0      -6.71047602     -23.82820596      29.22682412
O       -1.41700086       0.80676714       1.45529102        0      53.93843541     -77.49378595      18.58472668
H        2.88118402       0.22751088       1.12335567        0       0.85782444       1.69623733      -1.45883756
H        3.63197574      -0.57101069      -0.29646487        0       0.56872671      -2.46687136       0.85625340
H        2.57571711      -1.46975076       0.84875129        0      -0.05530987       1.12203977       3.32402481
H        0.73565853       0.65002330       0.91798873        0       1.74516156       2.25527215      -2.87080438
H        0.15779185      -1.17431492       0.21474923        0      -0.41681202       0.60069589      -0.86164737
H       -0.68489560       1.12958154      -1.59936454        0      -1.64422601       3.29852634       1.17585696
H       -3.04775628       0.00404119      -1.30840491        0      -0.95594360       0.79398528      -0.20943232
H       -1.78326540      -1.12191665      -1.88649843        0      -0.37218263       2.74017841      -2.67896904
H       -2.29875087      -1.13003958      -0.21031725        0       0.30422985      -0.58827190      -2.48655752
H       -0.76072101       2.33344084       0.37446109        0      -1.91808759      -1.08366478       3.37803975
17
Properties=species:S:1:pos:R:3:tags:I:1:momenta:R:3 energy=22.939474357469713 pbc="F F F"
C        2.77238330      -0.53290570       0.37220178        0       6.84062271      -1.00231287      11.92720303
O        1.70716092      -0.27079269      -0.50853046        0      16.50980745     -30.86062659      -2.30572149
C        0.46362102      -0.10020634       0.13054377        0       9.42936769      -1.15181934     -12.98271668
C       -1.09538367       0.60502710      -0.74571733        0     -15.58136460      14.26020773       1.76018172
C       -2.13958350      -0.41764662      -1.12620383        0     -11.18904235      15.29950767     -11.64063775
C       -1.39880650       1.31421097       0.48648567        0       0.61766311     -25.98510320      26.03835631
O       -1.23579371       0.56173789       1.48900212        0      55.89394725     -71.42055515       2.08915206
H        2.91932171       0.31633235       1.05287274        0       0.59509770       1.70713454      -1.22912911
H        3.66774770      -0.68165115      -0.22826953        0       0.79179872      -1.76264454       1.73922649
H        2.57399707      -1.39506364       1.01974702        0      -0.03667460       1.72227014       3.21332280
H        0.81085900       0.74587482       0.75601161        0       1.14687140       1.44163178      -3.30389174
H        0.14114522      -1.15439577       0.13580808        0      -0.21777920       0.18520265      -2.13799554
H       -0.78055717       1.29416158      -1.52995556        0      -2.01154378       2.99431355       1.47237194
H       -3.10755655       0.05152477      -1.30395200        0      -1.32593141       1.00466044       0.38610166
H       -1.82280390      -0.97115160      -2.01237830        0      -1.14119310       3.01412668      -2.13916270
H       -2.29049914      -1.15055757      -0.33252959        0       0.01081310      -0.21012187      -2.18696621
H       -0.83511996       2.26028509       0.55212039        0      -0.91766705      -1.70176175       3.37510339
17
Properties=species:S:1:pos:R:3:tags:I:1:momenta:R:3 energy=22.908401455142826 pbc="F F F"
C        2.80177161      -0.52757974       0.43299386        0       6.36153095       3.33672431      15.60643236
O        1.76843745      -0.36816868      -0.50927823        0      20.50495307     -28.41850006       1.85115023
C        0.50602776      -0.11421042       0.06222279        0      10.01284849      -4.97791823     -17.89343677
C       -1.16701527       0.66549529      -0.73331112        0     -16.99921908      13.32238463       3.83262934
C       -2.19822008      -0.34722455      -1.16578293        0     -15.34017992      16.58851724      -6.44999455
C       -1.38104680       1.19769549       0.59028996        0       7.34179049     -27.02967097      21.11208310
O       -1.05174524       0.33688363       1.47025495        0      55.60294555     -65.29991614     -13.29281867
H        2.94274306       0.40534084       0.99519345        0       0.29823006       1.69496541      -0.98341774
H        3.71264845      -0.75555923      -0.11736243        0       0.90298410      -1.08064321       2.48099227
H        2.56940339      -1.29240341       1.18293782        0      -0.16167706       2.18174725       3.02374688
H        0.85854136       0.80381941       0.57574036        0       0.71969682       0.81057732      -3.57747672
H        0.13601577      -1.15149136      -0.00444423        0       0.03510704      -0.03527002      -3.18588449
H       -0.89408326       1.44219692      -1.44667088        0      -2.32802396       2.67985015       1.70850099
H       -3.18439833       0.10659622      -1.26766370        0      -1.59496555       1.07923127       1.00607507
H       -1.90148918      -0.80913102      -2.10987063        0      -1.85740300       3.17243990      -1.59505788
H       -2.29679870      -1.15352058      -0.43807837        0      -0.23854027       0.07963456      -1.85247835
H       -0.85716638       2.15835593       0.72225269        0       0.05535722      -2.17224487       3.09931725
17
Properties=species:S:1:pos:R:3:tags:I:1:momenta:R:3 energy=22.883775652062113 pbc="F F F"
C        2.82642111      -0.50460821       0.50709136        0       4.72641735       7.04396864      18.01705780
O        1.84035054      -0.45801465      -0.49634191        0      22.97370391     -26.17297398       6.01412793
C        0.55229148      -0.14161085      -0.02374352        0      11.21547167      -7.29866077     -21.09843323
C       -1.24337727       0.72146353      -0.71269522        0     -17.75372922      12.16275255       5.52507842
C       -2.27206217      -0.27444398      -1.18287571        0     -18.17297246      16.39564087      -1.35568763
C       -1.33594481       1.07892245       0.66971184        0      13.06265571     -26.97886895      14.94766475
O       -0.87253832       0.13209130       1.40288752        0      52.97258596     -59.18283879     -27.44866567
H        2.95029900       0.49260717       0.94994479        0      -0.00744059       1.64219442      -0.74936635
H        3.75938143      -0.79581128       0.02802111        0       0.86317906      -0.47175867       3.06396851
H        2.55484642      -1.17013938       1.33409414        0      -0.41666384       2.47567661       2.75372278
H        0.89009980       0.83358474       0.38471336        0       0.52330784       0.35415185      -3.71910377
H        0.14654179      -1.15413068      -0.19159313        0       0.38690163      -0.03126652      -3.93186262
H       -1.02263833       1.57412090      -1.35224722        0      -2.58558783       2.36979870       1.90474867
H       -3.27179582       0.16125969      -1.19885654        0      -1.73258338       0.98421414       1.62756473
H       -2.01482886      -0.64211472      -2.17858314        0      -2.46371044       3.20161324      -1.02978779
H       -2.31390467      -1.14418866      -0.52594264        0      -0.40344590       0.25829275      -1.51590125
H       -0.83126086       2.03656928       0.87109697        0       0.92152011      -2.46510883       2.55469865
17
Properties=species:S:1:pos:R:3:tags:I:1:momenta:R:3 energy=22.85625039576372 pbc="F F F"
C        2.84212594      -0.46680743       0.58940915        0       2.35749312      10.07651015      19.40810670
O        1.91827094      -0.53981507      -0.46980582        0      24.23728491     -23.45020601      10.07498986
C        0.60536126      -0.17640952      -0.12094275        0      13.13308685      -8.40626079     -23.10348732
C       -1.32193253       0.77149531      -0.68522302        0     -18.04931041      10.61331848       6.98488907
C       -2.35612345      -0.20539693      -1.17771124        0     -20.05901473      14.93059533       3.69253639
C       -1.26821777       0.96309255       0.71981872        0      17.65172259     -25.67961096       7.78445885
O       -0.70544935      -0.05215373       1.29117126        0      48.32846678     -52.74474814     -40.22313013
H        2.94251103       0.57637147       0.91717830        0      -0.28163052       1.56184136      -0.50317914
H        3.80050045      -0.80590170       0.20039544        0       0.69125192       0.07212627       3.51891605
H        2.52396175      -1.03635554       1.46942974        0      -0.78140493       2.62599496       2.42216041
H        0.91625521       0.84294584       0.18933794        0       0.50510726       0.02221144      -3.74777751
H        0.17858146      -1.15173765      -0.40978547        0       0.86267437       0.14436945      -4.37590570
H       -1.16297296       1.68898532      -1.24783611        0      -2.77924426       2.02294629       2.09569392
H       -3.36345547       0.20624186      -1.09824712        0      -1.76172796       0.71113626       2.21693090
H       -2.15659046      -0.47726471      -2.21650542        0      -2.94508290       3.08976567      -0.41479789
H       -2.33774829      -1.12851658      -0.59693031        0      -0.50010748       0.32497812      -1.21003087
H       -0.76245631       1.90364197       0.98425129        0       1.69573461      -2.59990857       1.73930826
17
Properties=species:S:1:pos:R:3:tags:I:1:momenta:R:3 energy=22.82918320006862 pbc="F F F"
C        2.84660301      -0.41782747       0.67606025        0      -0.34635985      12.06068140      20.02940884
O        1.99895933      -0.61165485      -0.43063768        0      24.71509809     -20.14667948      13.60246794
C        0.66854966      -0.21387618      -0.22502931        0      15.84119581      -8.54863264     -24.28979377
C       -1.40133853       0.81419938      -0.65171780        0     -18.19011920       8.87843550       8.27933568
C       -2.44667703      -0.14500608      -1.15095594        0     -21.12912376      12.49859194       8.43568095
C       -1.18306580       0.85560762       0.73705226        0      20.99776159     -23.19215917       0.01614482
O       -0.55587907      -0.21407864       1.14001898        0      42.49604679     -45.52124887     -51.37967075
H        2.92222348       0.65506398       0.89747221        0      -0.47993591       1.44408870      -0.25339283
H        3.82946435      -0.79034798       0.39338012        0       0.39829526       0.49632171       3.85177106
H        2.47216743      -0.89832261       1.58637187        0      -1.20796653       2.63764950       2.05184098
H        0.94555183       0.83765869      -0.00520085        0       0.64239684      -0.20831945      -3.69269106
H        0.23906462      -1.13788911      -0.64348413        0       1.47775218       0.38613054      -4.52936425
H       -1.31179096       1.78490623      -1.13328265        0      -2.91077943       1.65004199       2.29250876
H       -3.45404692       0.23315331      -0.96879677        0      -1.69150644       0.30287250       2.72320993
H       -2.32015330      -0.32170655      -2.22141639        0      -3.29893896       2.84885798       0.22711621
H       -2.36521209      -1.11168899      -0.65303872        0      -0.54382366       0.30955659      -0.94576224
H       -0.65708683       1.76824425       1.04961438        0       2.30139796      -2.55132320       0.74625942
17
Properties=species:S:1:pos:R:3:tags:I:1:momenta:R:3 energy=22.80336397292606 pbc="F F F"
C        2.83888030      -0.36327825       0.76408365        0      -3.20568986      12.57646057      20.05738470
O        2.08030436      -0.67198025      -0.38143143        0      24.65261817     -16.48952454      16.12167858
C        0.74527715      -0.25015922      -0.33298176        0      19.28090573      -7.88815081     -24.90152362
C       -1.48141535       0.84953704      -0.61291870        0     -18.36402297       7.28934869       9.40141842
C       -2.53994452      -0.09684478      -1.10474155        0     -21.27249667       9.38645997      12.53230761
C       -1.08609785       0.76136722       0.71962537        0      23.04577799     -19.65703203      -7.98891455
O       -0.42605496      -0.35023526       0.95515288        0      36.45933549     -37.02260751     -60.69633729
H        2.89410313       0.72613564       0.89031813        0      -0.58160427       1.26760475      -0.02565529
H        3.84005014      -0.75751391       0.60027234        0      -0.01194098       0.72548456       4.04977178
H        2.39763370      -0.76335598       1.68315604        0      -1.64651363       2.50965763       1.65000196
H        0.98578891       0.82288710      -0.19531332        0       0.91933504      -0.34150675      -3.58092322
H        0.33522307      -1.11235651      -0.87832100        0       2.22424699       0.57716044      -4.42752695
H       -1.46580483       1.86143451      -1.00851335        0      -2.97666326       1.28376536       2.48496004
H       -3.53828414       0.23668556      -0.81609447        0      -1.51704696      -0.17471331       3.10324438
H       -2.49892512      -0.18169494      -2.19314248        0      -3.52812293       2.49665893       0.84972616
H       -2.39373901      -1.09689846      -0.69629505        0      -0.54114745       0.25239836      -0.71597536
H       -0.52708456       1.64121228       1.06136218        0       2.62632756      -2.27521377      -0.29635192
17
Properties=species:S:1:pos:R:3:tags:I:1:momenta:R:3 energy=22.781121058916927 pbc="F F F"
C        2.81809899      -0.30977666       0.85108538        0      -6.35231425      11.62014647      19.56443493
O        2.16038087      -0.72006493      -0.32583050        0      23.85964270     -12.76979457      17.49764053
C        0.83803783      -0.28198908      -0.44263840        0      23.05566506      -6.52995977     -25.08178695
C       -1.56212028       0.87831094      -0.56952635        0     -18.41626477       5.84059890      10.38697750
C       -2.63152093      -0.06354831      -1.04218809        0     -20.33021266       5.71776282      15.91251251
C       -0.98291228       0.68470114       0.66696451        0      23.85090444     -15.18514190     -16.04748563
O       -0.31560935      -0.45622395       0.74269984        0      30.77331002     -27.22774300     -68.17722603
H        2.86277231       0.78641540       0.89430816        0      -0.61067194       1.03311675       0.17516728
H        3.82628876      -0.71818425       0.81386760        0      -0.53281146       0.75008064       4.10910136
H        2.30029023      -0.63837799       1.75808038        0      -2.08204353       2.25950863       1.21388904
H        1.04329681       0.80362797      -0.37819416        0       1.29656910      -0.38094793      -3.41373119
H        0.47246484      -1.07916250      -1.10240226        0       3.03222463       0.68207736      -4.12880050
H       -1.62121510       1.91911249      -0.87403005        0      -2.96056572       0.92468981       2.66334956
H       -3.61047212       0.21435797      -0.64694672        0      -1.22765508      -0.68526717       3.35762680
H       -2.68637403      -0.06277506      -2.13341570        0      -3.62965700       2.04135861       1.43124867
H       -2.42080886      -1.08579024      -0.72821601        0      -0.48534767       0.16769565      -0.50967447
H       -0.38797859       1.53445294       1.01909639        0       2.65877766      -1.78260311      -1.31564229
17
Properties=species:S:1:pos:R:3:tags:I:1:momenta:R:3 energy=22.771571323795953 pbc="F F F"
C        2.78232970      -0.26311595       0.93476538        0     -10.09719376       9.51412518      18.54092016
O        2.23566117      -0.75651067      -0.26744903        0      21.58165672      -9.52026419      17.82973873
C        0.94666388      -0.30648546      -0.55223781        0      26.36977914      -4.55458364     -24.87845680
C       -1.64191206       0.90032628      -0.52198288        0     -17.85079215       4.12127790      11.30584017
C       -2.71630411      -0.04760099      -0.96598096        0     -18.14756519       1.45621199      18.81706137
C       -0.87874671       0.62956190       0.57905058        0      23.50749868      -9.84011701     -24.05807009
O       -0.22277979      -0.52838298       0.50832451        0      25.83401796     -16.51752790     -74.07650712
H        2.83063186       0.83333356       0.90849886        0      -0.62207726       0.75860800       0.36977916
H        3.78268004      -0.68194299       1.02709232        0      -1.15305611       0.61553334       4.03717740
H        2.18019710      -0.52903200       1.80928172        0      -2.51762849       1.91527024       0.74131524
H        1.12233915       0.78464902      -0.55056599        0       1.74106870      -0.33185613      -3.17576332
H        0.65030179      -1.04202908      -1.30734272        0       3.74980350       0.73447470      -3.70659671
H       -1.77312606       1.95758718      -0.73074974        0      -2.83867979       0.54211501       2.82093893
H       -3.66419995       0.16456036      -0.46692336        0      -0.80684571      -1.22841239       3.52796981
H       -2.87547989       0.02967333      -2.04426197        0      -3.58850388       1.48231233       1.97952562
H       -2.44311940      -1.08014990      -0.74972693        0      -0.35467595       0.03923200      -0.31552452
H       -0.25309397       1.45770013       0.92497096        0       2.48012421      -1.13793745      -2.27706909
17
Properties=species:S:1:pos:R:3:tags:I:1:momenta:R:3 energy=22.77868020866726 pbc="F F F"
C        2.72835970      -0.22763215       1.01285067        0     -14.69856818       6.55893893      17.01981370
O        2.29978922      -0.78383198      -0.20961102        0      16.96391373      -7.28067715      17.16686129
C        1.06722518      -0.32111362      -0.66009459        0      28.38598325      -2.03612552     -24.27684538
C       -1.71687023       0.91345957      -0.47050082        0     -16.13256131       1.75531959      12.18333574
C       -2.78851074      -0.05170195      -0.87760354        0     -14.55237196      -3.42400030      21.48483763
C       -0.77847494       0.59959860       0.45651856        0      22.08121668      -3.72943461     -31.78463488
O       -0.14419076      -0.56417166       0.25678860        0      22.19834540      -5.14923081     -78.62571441
H        2.79721132       0.86509770       0.93327490        0      -0.66860584       0.45293217       0.58372633
H        3.70432298      -0.65604216       1.23331426        0      -1.86333679       0.35732588       3.84159419
H        2.03752672      -0.43961186       1.83492046        0      -2.94532807       1.50006112       0.23612557
H        1.22600160       0.77035780      -0.70836261        0       2.23403842      -0.20332431      -2.85314382
H        0.85972804      -1.00288159      -1.48836937        0       4.22306834       0.76335100      -3.21971347